 VARIABLES = "X", "Y", "Z"
 ZONE F=FEPOINT, ET=QUADRILATERAL, N=        2003 E=        1736
  -23780.014803051010        1223.2144839486859        0.0000000000000000     
  -20027.365375155048        1246.9379647251646        0.0000000000000000     
  -16129.816799595561        1254.6139861771969        0.0000000000000000     
  -11232.132955519786        1232.2114865530502        0.0000000000000000     
  -6858.2771277251641        1115.5955104448969        0.0000000000000000     
  -6170.0785433963147        1450.2585088072628        0.0000000000000000     
  -4988.8735314527466        1402.5806673209713        0.0000000000000000     
  -3802.9076244072430        1339.3139303149076        0.0000000000000000     
  -2531.5462731286293        1283.2372882348425        0.0000000000000000     
  -1255.6469323138949        1262.8651001390435        0.0000000000000000     
  -3.7608874298423078        1258.2283468446690        0.0000000000000000     
   1229.2567224708591        1246.2354526755209        0.0000000000000000     
   2369.1733695137805        1237.9001748484143        0.0000000000000000     
   3733.9960393495867        1357.7819329646852        0.0000000000000000     
   6437.6374969804319        1176.0440374379914        0.0000000000000000     
   11254.875633583451        1277.4120096566778        0.0000000000000000     
   19988.222276336171        1192.0748794074011        0.0000000000000000     
   23849.585062800812        1294.7538725843956        0.0000000000000000     
  -23708.550540231274        2380.6238545503538        0.0000000000000000     
  -21208.864132440129        2475.7332371991624        0.0000000000000000     
  -20037.843070611925        2509.7877276076952        0.0000000000000000     
  -16258.390655474881        2404.2369645443150        0.0000000000000000     
  -15086.772567606593        2625.3111672026398        0.0000000000000000     
  -11196.693669086755        2409.8881889589370        0.0000000000000000     
  -7412.7522661792191        2471.9917242854722        0.0000000000000000     
  -6062.3588074934323        2563.2605616727192        0.0000000000000000     
  -4986.9662544836792        2568.2426254008037        0.0000000000000000     
  -3760.3155649017122        2548.3704420052245        0.0000000000000000     
  -2510.7712624130750        2530.6104075513927        0.0000000000000000     
  -1254.7889798783622        2520.8618915640263        0.0000000000000000     
  -2.1797153773063740        2513.2455266818779        0.0000000000000000     
   1257.1649828557734        2488.7647136574678        0.0000000000000000     
   2633.1308721033197        2373.0912744990223        0.0000000000000000     
   3683.1554073217094        2596.5757259203674        0.0000000000000000     
   5078.0329247313121        2454.0735399844552        0.0000000000000000     
   6343.0438238660327        2533.8869947242829        0.0000000000000000     
   7358.9433642540880        2685.4639426874196        0.0000000000000000     
   11263.259198534572        2520.8902759987313        0.0000000000000000     
   16185.058101534043        2582.3682534174609        0.0000000000000000     
   20012.556747799390        2320.5151960166932        0.0000000000000000     
   21215.630608480980        2711.8257328374611        0.0000000000000000     
   23766.176087618584        2489.2093846939283        0.0000000000000000     
  -23705.057140246794        3694.5915095468004        0.0000000000000000     
  -22580.467800485279        3844.0217546455788        0.0000000000000000     
  -21312.321338132846        3810.2361579929629        0.0000000000000000     
  -20032.573735598820        3767.5003686665596        0.0000000000000000     
  -16256.617129593571        3618.4649728631371        0.0000000000000000     
  -15128.209395499685        3899.2176638577157        0.0000000000000000     
  -11213.935824557815        3710.9372589387253        0.0000000000000000     
  -9913.3540883826299        3766.1183507051624        0.0000000000000000     
  -8736.1993590999828        3719.7755662321028        0.0000000000000000     
  -7401.0840241802098        3753.2938097879751        0.0000000000000000     
  -6420.3316775847616        3775.3409980446427        0.0000000000000000     
  -5002.7495578155886        3784.5187346042062        0.0000000000000000     
  -3752.4402816381430        3783.8983941242454        0.0000000000000000     
  -2502.5044358460623        3780.9637286911357        0.0000000000000000     
  -1251.3855287687768        3778.1771739804590        0.0000000000000000     
   1.3032464531540318        3773.1680177677199        0.0000000000000000     
   1265.6868342907437        3756.8662060205306        0.0000000000000000     
   2537.7821017266087        3741.3680557411185        0.0000000000000000     
   3884.2229926017185        3680.9797305886441        0.0000000000000000     
   4932.8941579299162        4079.0463183912630        0.0000000000000000     
   6617.1511497039337        3387.8904964167241        0.0000000000000000     
   7363.4939086814547        3786.0678279857138        0.0000000000000000     
   11245.239443277695        3780.6691554481372        0.0000000000000000     
   15076.058667700258        3822.7100067154493        0.0000000000000000     
   16293.072176906799        3834.8942964355133        0.0000000000000000     
   20056.742275805958        3740.9513633505053        0.0000000000000000     
   21296.782427994320        3835.3817086931122        0.0000000000000000     
   23952.382143474581        3595.2637464204640        0.0000000000000000     
  -23824.992915154151        4867.4432349810022        0.0000000000000000     
  -22915.231478812308        4624.3404625928233        0.0000000000000000     
  -21284.739421332091        5330.1113475188295        0.0000000000000000     
  -19966.313195817387        5046.2988997614084        0.0000000000000000     
  -18871.849251201162        5254.1753277975258        0.0000000000000000     
  -16230.258858440739        5002.4012199805356        0.0000000000000000     
  -15017.048252487648        5101.7130224377397        0.0000000000000000     
  -12345.181923426038        5143.4912172894756        0.0000000000000000     
  -11348.250710203629        5039.9988418966241        0.0000000000000000     
  -9944.1560181263776        5024.4522294324242        0.0000000000000000     
  -8810.4130833537874        5056.2176809519970        0.0000000000000000     
  -7508.1648617079281        5025.1012431397066        0.0000000000000000     
  -6105.8137022026176        5012.2093608592786        0.0000000000000000     
  -5002.4764306427278        5022.1472646858838        0.0000000000000000     
  -3751.8256910442647        5034.7036042594455        0.0000000000000000     
  -2500.6612242231731        5037.5314475337300        0.0000000000000000     
  -1250.1407177138967        5037.3715138107937        0.0000000000000000     
   1.3480321081664794        5035.4921239428395        0.0000000000000000     
   1256.0224570405830        5031.0997229035893        0.0000000000000000     
   2516.8526440699416        5025.5008104416638        0.0000000000000000     
   3757.7362686582187        5055.8626750985886        0.0000000000000000     
   4931.1423404711622        5133.7320422118491        0.0000000000000000     
   5959.0684467024939        5145.1668420385386        0.0000000000000000     
   7553.2083108474162        5133.5611442105001        0.0000000000000000     
   11240.122759316082        4951.4737841934248        0.0000000000000000     
   15084.009329151715        4957.0687997669420        0.0000000000000000     
   16253.714045176273        5041.8547237465446        0.0000000000000000     
   20064.084407492126        4977.1090924932514        0.0000000000000000     
   21308.759795430422        5050.1736104161782        0.0000000000000000     
   22428.533534157701        4991.7996453392134        0.0000000000000000     
   23854.267678203832        5112.0534620454155        0.0000000000000000     
  -23639.686696681361        6188.4902461948886        0.0000000000000000     
  -22216.431636471028        6357.5696366293369        0.0000000000000000     
  -21014.564248244489        6362.0245413384018        0.0000000000000000     
  -20064.886126504563        6320.1178113871001        0.0000000000000000     
  -18735.474701662704        6309.4034403031574        0.0000000000000000     
  -17401.686920023407        6333.0572177033582        0.0000000000000000     
  -16233.672465528845        6281.2411818299324        0.0000000000000000     
  -15020.640807505473        6376.9236795317056        0.0000000000000000     
  -12286.375299718107        6028.2460085576668        0.0000000000000000     
  -11610.361746726447        5833.9397312810406        0.0000000000000000     
  -9897.8711960944129        6596.0559609066086        0.0000000000000000     
  -8740.4952863396102        6144.5919961411364        0.0000000000000000     
  -7522.7752888437835        6446.7216831618898        0.0000000000000000     
  -6374.4468379904092        6172.2461085876748        0.0000000000000000     
  -5011.0612133389986        6272.0937724542564        0.0000000000000000     
  -3752.5859691919318        6292.2035266127341        0.0000000000000000     
  -2500.4530313420400        6296.7753822643435        0.0000000000000000     
  -1249.9960870014741        6297.3762832548746        0.0000000000000000     
  0.45090762537323958        6297.0141452546441        0.0000000000000000     
   1251.6897248112091        6296.1485220815321        0.0000000000000000     
   2502.3643540130988        6297.7079799989542        0.0000000000000000     
   3746.3350012864435        6308.2848658098046        0.0000000000000000     
   4983.8506471403734        6324.5203692841087        0.0000000000000000     
   6394.5069220790710        6333.2936628631342        0.0000000000000000     
   7358.7681768879174        6358.0770231795914        0.0000000000000000     
   11206.266540871944        6292.0837863464340        0.0000000000000000     
   15179.571160543750        6173.2023012063264        0.0000000000000000     
   16372.453371680971        6411.3294834839571        0.0000000000000000     
   20122.731298932205        6351.7119354364504        0.0000000000000000     
   21220.202554515832        6171.8856440439213        0.0000000000000000     
   22443.443401938574        6788.5915218686387        0.0000000000000000     
   23630.084101719327        6511.6039496385247        0.0000000000000000     
  -23497.820245393741        7171.2537855960136        0.0000000000000000     
  -22729.513952505305        7376.2712465333861        0.0000000000000000     
  -21414.055633281172        7507.9840080316526        0.0000000000000000     
  -20008.750733739209        7552.9599931483581        0.0000000000000000     
  -18746.517002192628        7554.2596802563112        0.0000000000000000     
  -17505.899635815378        7553.0948958611907        0.0000000000000000     
  -16251.612330304164        7550.3650550711609        0.0000000000000000     
  -14962.109879896763        7632.2920723386005        0.0000000000000000     
  -12577.225241061555        7475.8976328433937        0.0000000000000000     
  -10953.521441257204        7646.7479795048039        0.0000000000000000     
  -9912.4224006793975        7643.9537198496118        0.0000000000000000     
  -8730.4146540413876        7579.6978143750421        0.0000000000000000     
  -7512.3361187647233        7560.1507778486512        0.0000000000000000     
  -6274.8342051824811        7547.0857226592962        0.0000000000000000     
  -5014.5715501462155        7542.8794277786083        0.0000000000000000     
  -3752.7380693269097        7553.6767957036900        0.0000000000000000     
  -2500.4026948680494        7556.9036678143957        0.0000000000000000     
  -1250.0237163692464        7557.4587068272922        0.0000000000000000     
   9.3855605237273362E-002   7557.4554027897984        0.0000000000000000     
   1250.2512826128084        7557.4529439690832        0.0000000000000000     
   2500.2970533456137        7558.1166975385695        0.0000000000000000     
   3750.7650120814501        7560.1378123793447        0.0000000000000000     
   5005.2054701013467        7562.6951830368371        0.0000000000000000     
   6112.7208117046775        7563.4552413910105        0.0000000000000000     
   7483.2472625177261        7589.5749588496083        0.0000000000000000     
   10206.059232345990        7465.7821893174023        0.0000000000000000     
   11240.222902428723        7573.5606711801329        0.0000000000000000     
   15121.946042868041        7383.2541944784125        0.0000000000000000     
   16202.980417570667        7601.4955910783456        0.0000000000000000     
   19747.785653531115        7402.0642732361639        0.0000000000000000     
   21121.640271409698        7663.5742858291633        0.0000000000000000     
   23177.747005918041        7526.1189932115894        0.0000000000000000     
   23529.874875488589        7440.3401938994011        0.0000000000000000     
  -22437.509495961483        8615.5591527286597        0.0000000000000000     
  -21194.224082718796        8599.9758064454290        0.0000000000000000     
  -20152.189107153692        8915.9381339833490        0.0000000000000000     
  -18746.188479542110        8825.2116103647168        0.0000000000000000     
  -17513.071375674324        8895.6295734309642        0.0000000000000000     
  -16266.095969409251        8811.9817967267718        0.0000000000000000     
  -14950.327668097325        8753.1757889843611        0.0000000000000000     
  -13749.422126823583        8827.1314122459735        0.0000000000000000     
  -12484.546402672959        8745.6242495834831        0.0000000000000000     
  -11405.264660249759        8818.6210435639659        0.0000000000000000     
  -9978.5711632442089        8835.7120270287251        0.0000000000000000     
  -8740.7464334385641        8826.7771961988292        0.0000000000000000     
  -7501.3935541797709        8818.7029907854303        0.0000000000000000     
  -6255.0097622470394        8815.4216574365928        0.0000000000000000     
  -5003.8098581884597        8814.8352733351967        0.0000000000000000     
  -3751.3973073479578        8816.1407495783242        0.0000000000000000     
  -2500.2400788963637        8817.2464850019096        0.0000000000000000     
  -1250.0230681969433        8817.5084779006720        0.0000000000000000     
   1.1529645469290171E-002   8817.5373186787765        0.0000000000000000     
   1250.0586332444395        8817.5322935978493        0.0000000000000000     
   2500.4025325121315        8817.3912696869193        0.0000000000000000     
   3752.1802930774761        8816.3840590662439        0.0000000000000000     
   5008.4505340516189        8814.1614412536073        0.0000000000000000     
   6433.2042241391264        8813.7045098302387        0.0000000000000000     
   7419.9714248361015        8817.0172816127670        0.0000000000000000     
   8713.0956269066155        8861.8897871642184        0.0000000000000000     
   10041.505045186301        8721.4897433395672        0.0000000000000000     
   11282.489129451915        8841.5421584027499        0.0000000000000000     
   12322.734901004394        9252.7241841097293        0.0000000000000000     
   15053.977505932395        8632.4583192635055        0.0000000000000000     
   16230.852251550423        8836.7578459607485        0.0000000000000000     
   18867.407160841773        8673.4704853920357        0.0000000000000000     
   20058.584572638370        8666.2370253835979        0.0000000000000000     
   21066.857740745014        9046.9143357467201        0.0000000000000000     
   22292.407448572609        9104.8548093656391        0.0000000000000000     
  -22372.349078487219        9403.2537097687509        0.0000000000000000     
  -21518.366946246413        9957.4139301068990        0.0000000000000000     
  -19921.980029314713        9946.8901168331922        0.0000000000000000     
  -18747.154917454554        10221.328115278828        0.0000000000000000     
  -17519.604143186210        9883.2660362708539        0.0000000000000000     
  -16392.261742904269        10181.849404589018        0.0000000000000000     
  -14991.853037052450        10077.861572478800        0.0000000000000000     
  -13748.327412168941        10163.348051268598        0.0000000000000000     
  -12510.725563780219        10069.093523467594        0.0000000000000000     
  -11102.627132541342        10053.567326414588        0.0000000000000000     
  -9997.7945610339102        10064.502544770052        0.0000000000000000     
  -8748.9158365944058        10076.041341264840        0.0000000000000000     
  -7499.9991843793750        10077.546397327082        0.0000000000000000     
  -6250.6775237402180        10077.249234663461        0.0000000000000000     
  -5000.6220754941269        10077.161792557599        0.0000000000000000     
  -3750.2979717970702        10077.307677272689        0.0000000000000000     
  -2500.0787886947169        10077.469038420249        0.0000000000000000     
  -1250.0102848584181        10077.535498543752        0.0000000000000000     
   3.3818448527622199E-003   10077.543158191027        0.0000000000000000     
   1250.0524560242607        10077.483988625798        0.0000000000000000     
   2500.4314765660647        10076.901480472408        0.0000000000000000     
   3752.0146119882761        10073.454968259490        0.0000000000000000     
   5003.5753061752002        10060.760610109008        0.0000000000000000     
   6107.3738836702432        10051.449905750826        0.0000000000000000     
   7512.3884245243316        10063.526346999448        0.0000000000000000     
   8834.3434924969715        10085.864680072624        0.0000000000000000     
   9950.8079062425022        10041.845136802120        0.0000000000000000     
   11326.419858811118        10165.792108030231        0.0000000000000000     
   12311.212856293234        10227.300548918334        0.0000000000000000     
   14918.689528675359        9973.5097710209284        0.0000000000000000     
   16247.577056243237        10075.225753718580        0.0000000000000000     
   17473.091258735047        10214.924449489790        0.0000000000000000     
   18724.214295834237        10038.244117796017        0.0000000000000000     
   20006.972517526654        10107.851690629239        0.0000000000000000     
   21480.096460032964        10407.853166052641        0.0000000000000000     
   22174.786034215002        9985.9391724689103        0.0000000000000000     
  -21219.447952537867        11211.773941986212        0.0000000000000000     
  -20050.993312560418        11256.065987996535        0.0000000000000000     
  -18794.101546866412        11321.068715175154        0.0000000000000000     
  -17512.983748557770        11309.517139031870        0.0000000000000000     
  -16133.476252206054        11225.889768345744        0.0000000000000000     
  -14976.464447893881        11486.864573316343        0.0000000000000000     
  -13749.829761730685        11156.432513196563        0.0000000000000000     
  -12525.077519356279        11482.091199134658        0.0000000000000000     
  -11374.370912288530        11211.948080365639        0.0000000000000000     
  -10010.447552107838        11312.426782265824        0.0000000000000000     
  -8752.1339967899712        11332.468200091613        0.0000000000000000     
  -7500.3000813618937        11336.861650785682        0.0000000000000000     
  -6250.0819510283482        11337.465930759718        0.0000000000000000     
  -5000.0644293268324        11337.508699841195        0.0000000000000000     
  -3750.0363362150906        11337.522613915029        0.0000000000000000     
  -2500.0125662524792        11337.537800256860        0.0000000000000000     
  -1250.0023535173332        11337.545793516110        0.0000000000000000     
   3.3182642486907412E-003   11337.542805629686        0.0000000000000000     
   1250.0499895358744        11337.464388790737        0.0000000000000000     
   2500.4457062119923        11336.713441670676        0.0000000000000000     
   3752.6266556641026        11332.075761391689        0.0000000000000000     
   5011.1887674868312        11311.945647228396        0.0000000000000000     
   6374.7551508525858        11212.039390271069        0.0000000000000000     
   7523.5298816634904        11486.226105830416        0.0000000000000000     
   8744.1509664191217        11182.582416508298        0.0000000000000000     
   9897.4905291735013        11639.883295814214        0.0000000000000000     
   11593.751192505293        10990.038743206884        0.0000000000000000     
   12300.390138624020        11385.608113612394        0.0000000000000000     
   15076.122288504968        11288.311090868097        0.0000000000000000     
   16251.169795495296        11330.848840620432        0.0000000000000000     
   17506.700382165938        11333.933375441888        0.0000000000000000     
   18747.588009142903        11335.183303289055        0.0000000000000000     
   20051.374507972581        11385.117993892280        0.0000000000000000     
   20900.686917450559        11557.577742309664        0.0000000000000000     
  -21132.171937082472        11988.895463278803        0.0000000000000000     
  -20304.777024735129        12489.109724833566        0.0000000000000000     
  -18879.458011959006        12563.698584438212        0.0000000000000000     
  -17550.956104138426        12593.819864914747        0.0000000000000000     
  -16242.672567669339        12593.990227505037        0.0000000000000000     
  -14988.068167566706        12597.602430616020        0.0000000000000000     
  -13750.846144648303        12591.717699584844        0.0000000000000000     
  -12516.195630564698        12594.615638296837        0.0000000000000000     
  -11275.367266692214        12586.386955751103        0.0000000000000000     
  -10014.577240862587        12582.862969090185        0.0000000000000000     
  -8752.6993106275968        12593.707857701531        0.0000000000000000     
  -7500.3854139727073        12596.921358496993        0.0000000000000000     
  -6250.0397892015981        12597.483672584571        0.0000000000000000     
  -5000.0061088845696        12597.542464628687        0.0000000000000000     
  -3750.0027371988058        12597.546670077385        0.0000000000000000     
  -2500.0011188777517        12597.547700676112        0.0000000000000000     
  -1250.0001714600564        12597.548099675765        0.0000000000000000     
   2.8263550007926901E-003   12597.543845242715        0.0000000000000000     
   1250.0417753015222        12597.479737826452        0.0000000000000000     
   2500.4049416999992        12596.901862404849        0.0000000000000000     
   3752.7424307590227        12593.668111598359        0.0000000000000000     
   5014.5874040986382        12582.864002199320        0.0000000000000000     
   6274.8997408987216        12587.037718081512        0.0000000000000000     
   7512.6601001010495        12599.975405092380        0.0000000000000000     
   8731.1775810601157        12619.894961094815        0.0000000000000000     
   9913.6367812510944        12688.652157202658        0.0000000000000000     
   10951.561808668961        12709.219729650637        0.0000000000000000     
   12409.557345620595        12690.734861617830        0.0000000000000000     
   15033.233226005204        12534.686071235541        0.0000000000000000     
   16163.754307602245        12668.102533797015        0.0000000000000000     
   17525.287099258501        12728.495293816652        0.0000000000000000     
   18883.240345001934        12747.336389727019        0.0000000000000000     
   20047.647844837946        12668.917774645572        0.0000000000000000     
   21082.958699906299        12398.247307229129        0.0000000000000000     
  -20089.484668849633        13426.626354570613        0.0000000000000000     
  -19135.003596147093        13901.056425329829        0.0000000000000000     
  -17582.131179185024        13867.902386307867        0.0000000000000000     
  -16271.665792716309        13860.596286021719        0.0000000000000000     
  -15005.192098968899        13858.663301494371        0.0000000000000000     
  -13752.888193317587        13857.197586653769        0.0000000000000000     
  -12504.783673213862        13856.294492041623        0.0000000000000000     
  -11255.758571577362        13855.184556266897        0.0000000000000000     
  -10003.970095513216        13854.882349850657        0.0000000000000000     
  -8751.4301987940471        13856.167363338431        0.0000000000000000     
  -7500.2463983304524        13857.254494047029        0.0000000000000000     
  -6250.0274265770167        13857.513397078075        0.0000000000000000     
  -5000.0023422549784        13857.546220978955        0.0000000000000000     
  -3750.0003339915388        13857.548507544589        0.0000000000000000     
  -2500.0001074640718        13857.548562577598        0.0000000000000000     
  -1249.9999514429253        13857.548435561934        0.0000000000000000     
   1.8409211708309229E-003   13857.545787909119        0.0000000000000000     
   1250.0262037283421        13857.511475054518        0.0000000000000000     
   2500.2406209838296        13857.246843754894        0.0000000000000000     
   3751.3978974631209        13856.140386690469        0.0000000000000000     
   5003.8131658685616        13854.833184805091        0.0000000000000000     
   6255.0334233500953        13855.407441064383        0.0000000000000000     
   7501.5253545624619        13858.663815712494        0.0000000000000000     
   8741.3788351384119        13867.055746063163        0.0000000000000000     
   9981.3624339139042        13879.856561922837        0.0000000000000000     
   11420.451668413449        13890.034764399719        0.0000000000000000     
   12602.207886207869        13949.531763332314        0.0000000000000000     
   15017.740882045653        13821.888459909300        0.0000000000000000     
   15858.034247367481        13480.349229601385        0.0000000000000000     
   17510.394006489088        14446.658802468852        0.0000000000000000     
   19283.043645373818        13718.123654317835        0.0000000000000000     
   19905.565767976914        13993.840993734959        0.0000000000000000     
  -18719.514916515760        15099.040178414027        0.0000000000000000     
  -17555.131277183507        15069.714400916579        0.0000000000000000     
  -16292.653961972233        15104.796124751885        0.0000000000000000     
  -15020.002523087216        15116.163124355511        0.0000000000000000     
  -13760.239707035829        15119.335461047980        0.0000000000000000     
  -12505.528574911865        15119.260642978630        0.0000000000000000     
  -11252.952347909137        15118.382157056869        0.0000000000000000     
  -10001.361064805860        15117.656405347649        0.0000000000000000     
  -8750.4975868139754        15117.460130075820        0.0000000000000000     
  -7500.1330947323704        15117.512510260207        0.0000000000000000     
  -6250.0276857374320        15117.549823225590        0.0000000000000000     
  -5000.0069710228527        15117.552595550143        0.0000000000000000     
  -3750.0024252271619        15117.550560945767        0.0000000000000000     
  -2500.0009271511076        15117.549354613428        0.0000000000000000     
  -1250.0002702591496        15117.548754443569        0.0000000000000000     
   8.0600807860795368E-004   15117.547530841402        0.0000000000000000     
   1250.0108745615703        15117.536132570758        0.0000000000000000     
   2500.0795155099122        15117.469949817721        0.0000000000000000     
   3750.2998095048224        15117.309868963644        0.0000000000000000     
   5000.6274842656212        15117.166707351113        0.0000000000000000     
   6250.6993076691597        15117.256399564219        0.0000000000000000     
   7500.1092793197849        15117.535832030862        0.0000000000000000     
   8749.3841448179082        15116.000404299619        0.0000000000000000     
   9998.9817993846318        15105.022758985268        0.0000000000000000     
   11103.645753202349        15092.838765531158        0.0000000000000000     
   12564.879862196502        15036.085776216683        0.0000000000000000     
   13756.785710272965        15120.743935825403        0.0000000000000000     
   14997.470261036329        15040.188603395516        0.0000000000000000     
   16521.356206964476        15273.661990806169        0.0000000000000000     
   17421.630147045445        15412.568144297771        0.0000000000000000     
   18316.918193676189        15624.129370256776        0.0000000000000000     
  -18544.471003970171        15814.027539835393        0.0000000000000000     
  -17671.809861641261        16243.583470266924        0.0000000000000000     
  -16318.358730974604        16302.560368085844        0.0000000000000000     
  -15054.954630780767        16357.127266382573        0.0000000000000000     
  -13785.935238875443        16377.766887117987        0.0000000000000000     